REMARK SMILES CNC(=C[N+](=O)[O-])NCCSCc1ccc(CN(C)C)o1
REMARK SMILES IDX 10 1 9 2 8 3 3 5 4 6 2 7 1 8 5 10 7 11 6 12 11 13 12 14
REMARK SMILES IDX 13 15 14 16 21 17 15 18 16 19 17 20 18 21 19 22 20 23
REMARK H PARENT 8 4 2 9
REMARK Flexibility Score: inf
ROOT
ATOM      1  C   UNL     1       0.335  -2.479  -3.562  1.00  0.00     0.091 C 
ENDROOT
BRANCH   1   2
ATOM      2  C   UNL     1       0.693  -1.615  -4.768  1.00  0.00     0.125 C 
BRANCH   2   3
ATOM      3  N   UNL     1       2.122  -1.685  -5.021  1.00  0.00    -0.366 N 
ATOM      4  H   UNL     1       2.702  -1.315  -4.263  1.00  0.00     0.162 HD
BRANCH   3   5
ATOM      5  C   UNL     1       2.728  -2.247  -6.203  1.00  0.00     0.171 C 
ATOM      6  C   UNL     1       4.045  -2.026  -6.512  1.00  0.00     0.424 C 
BRANCH   5   7
ATOM      7  N   UNL     1       1.940  -3.099  -7.061  1.00  0.00    -0.370 N 
ATOM      8  C   UNL     1       2.419  -3.682  -8.299  1.00  0.00     0.141 C 
ATOM      9  H   UNL     1       0.982  -3.357  -6.800  1.00  0.00     0.161 HD
ENDBRANCH   5   7
BRANCH   6  10
ATOM     10  N   UNL     1       4.977  -1.194  -5.810  1.00  0.00     0.058 N 
ATOM     11  O   UNL     1       4.617  -0.381  -4.844  1.00  0.00    -0.259 OA
ATOM     12  O   UNL     1       6.105  -1.152  -6.197  1.00  0.00    -0.259 OA
ENDBRANCH   6  10
ENDBRANCH   3   5
ENDBRANCH   2   3
ENDBRANCH   1   2
BRANCH   1  13
ATOM     13  S   UNL     1      -1.457  -2.385  -3.214  1.00  0.00    -0.152 SA
BRANCH  13  14
ATOM     14  C   UNL     1      -1.907  -3.848  -4.208  1.00  0.00     0.144 C 
BRANCH  14  15
ATOM     15  C   UNL     1      -3.387  -3.878  -4.397  1.00  0.00     0.114 A 
ATOM     16  C   UNL     1      -4.238  -4.885  -3.985  1.00  0.00     0.047 A 
ATOM     17  O   UNL     1      -4.070  -2.929  -4.998  1.00  0.00    -0.464 OA
ATOM     18  C   UNL     1      -5.500  -4.492  -4.371  1.00  0.00     0.047 A 
ATOM     19  C   UNL     1      -5.338  -3.271  -4.995  1.00  0.00     0.118 A 
BRANCH  19  20
ATOM     20  C   UNL     1      -6.433  -2.436  -5.588  1.00  0.00     0.159 C 
BRANCH  20  21
ATOM     21  N   UNL     1      -7.437  -2.070  -4.569  1.00  0.00    -0.302 NA
ATOM     22  C   UNL     1      -6.869  -1.159  -3.558  1.00  0.00     0.105 C 
ATOM     23  C   UNL     1      -8.596  -1.433  -5.213  1.00  0.00     0.105 C 
ENDBRANCH  20  21
ENDBRANCH  19  20
ENDBRANCH  14  15
ENDBRANCH  13  14
ENDBRANCH   1  13
TORSDOF 10
